# vtk DataFile Version 2.0
TET
ASCII

DATASET UNSTRUCTURED_GRID
POINTS 899 float
-0.2 0 0 
-0.191152 0 0.0588291 
-0.165263 0 0.112641 
-0.124818 0 0.156271 
-0.0732585 0 0.1861 
-0.0150099 0 0.199436 
0.0442799 0 0.195037 
0.0999224 0 0.17325 
0.146541 0 0.13611 
0.18021 0 0.0867424 
0.197751 0 0.0299106 
0.19781 0 -0.029518 
0.180284 0 -0.0865895 
0.146775 0 -0.135857 
0.100221 0 -0.173077 
0.044637 0 -0.194955 
-0.014666 0 -0.199462 
-0.0729375 0 -0.186226 
-0.124548 0 -0.156486 
-0.165203 0 -0.112729 
-0.191073 0 -0.0590851 
0.2 1 0 
0.191155 1 0.0588204 
0.165274 1 0.112626 
0.124839 1 0.156254 
0.0732924 1 0.186087 
0.0150553 1 0.199433 
-0.0442266 1 0.195049 
-0.0998672 1 0.173282 
-0.146491 1 0.136163 
-0.180175 1 0.0868163 
-0.197737 1 0.0300001 
-0.197779 1 -0.0297218 
-0.180199 1 -0.0867659 
-0.146648 1 -0.135994 
-0.0999336 1 -0.173243 
-0.0446001 1 -0.194964 
0.0149789 1 -0.199438 
0.0732211 1 -0.186115 
0.124779 1 -0.156301 
0.165364 1 -0.112494 
0.191135 1 -0.0588858 
-0.197764 0.0518355 0.0298261 
-0.14663 0.0518014 0.136014 
-0.0445624 0.0518422 0.194972 
0.0730563 0.0518848 0.186179 
0.165289 0.0518814 0.112604 
0.2 0.0518546 1.10088e-05 
0.165294 0.0518438 -0.112596 
0.073159 0.0518781 -0.186139 
-0.0444156 0.0518887 -0.195006 
-0.146588 0.0518851 -0.136059 
-0.197769 0.0518671 -0.0297927 
0.19775 0.948099 0.0299154 
0.146617 0.948089 0.136028 
0.0445817 0.948075 0.194968 
-0.0730056 0.948062 0.186199 
-0.165255 0.948066 0.112654 
-0.2 0.948071 -4.13973e-05 
-0.16519 0.948069 -0.112749 
-0.0729474 0.948064 -0.186222 
0.0446967 0.948081 -0.194942 
0.146781 0.948085 -0.13585 
0.197793 0.948094 -0.0296311 
-0.180194 0.0518381 0.0867768 
-0.100058 0.0518003 0.173172 
0.0148995 0.0518524 0.199444 
0.124724 0.0518644 0.156346 
0.191132 0.0518559 0.058894 
0.191132 0.051873 -0.058894 
0.124776 0.0518452 -0.156304 
0.0150431 0.0518686 -0.199433 
-0.0999469 0.0518682 -0.173236 
-0.180191 0.0518563 -0.0867816 
0.180172 0.948107 0.0868209 
0.100056 0.948078 0.173173 
-0.0148679 0.948049 0.199447 
-0.124678 0.948056 0.156382 
-0.191124 0.948054 0.0589215 
-0.19109 0.948072 -0.059029 
-0.124599 0.948078 -0.156445 
-0.0148024 0.94808 -0.199451 
0.100202 0.948073 -0.173088 
0.180296 0.948082 -0.0865651 
-0.191083 0.103728 0.0590529 
-0.0149474 0.103745 0.199441 
0.100096 0.103805 0.17315 
0.180279 0.103798 0.0865992 
0.197747 0.103785 -0.0299379 
0.146576 0.103774 -0.136071 
0.0444912 0.103799 -0.194989 
-0.0731044 0.103815 -0.186161 
-0.165305 0.103796 -0.112579 
0.124632 0.896162 0.156419 
0.165162 0.896177 0.11279 
0.0149094 0.896127 0.199444 
-0.100085 0.896114 0.173156 
-0.180272 0.896114 0.0866152 
-0.197732 0.896128 -0.0300339 
-0.146431 0.896138 -0.136228 
-0.0442244 0.896146 -0.195049 
0.0733818 0.896155 -0.186051 
0.165453 0.896168 -0.112362 
-0.0730793 0.103705 0.18617 
0.191048 0.896185 0.0591657 
-0.124683 0.103687 0.156378 
-0.2 0.103754 0.000127353 
0.2 0.896183 0.000291085 
0.0445417 0.103785 0.194977 
0.146721 0.103808 0.135916 
0.197792 0.10379 0.029639 
0.180155 0.10378 -0.0868564 
0.0999787 0.103785 -0.173217 
-0.0149652 0.103811 -0.199439 
-0.124754 0.103812 -0.156322 
-0.191151 0.103777 -0.0588327 
-0.0445658 0.896114 0.194972 
-0.165211 0.103702 0.112718 
0.0730194 0.896146 0.186194 
-0.146709 0.896113 0.135928 
-0.197797 0.896117 0.0296031 
-0.180085 0.896131 -0.0870028 
-0.0997597 0.89614 -0.173344 
0.0152564 0.896154 -0.199417 
0.124978 0.896161 -0.156142 
0.191214 0.896175 -0.0586281 
-0.146541 0.15559 0.136109 
0.16541 0.155748 0.112425 
0.01498 0.155696 0.199438 
0.100415 0.844241 -0.172965 
0.124855 0.155757 0.156241 
0.0731668 0.155744 0.186136 
0.2 0.155722 -0.000303621 
0.16513 0.155707 -0.112837 
0.0729482 0.155723 -0.186222 
-0.0446421 0.155758 -0.194954 
-0.165433 0.844159 0.112392 
-0.0151296 0.844183 0.199427 
0.0443328 0.844198 0.195025 
-0.180116 0.155613 0.0869376 
0.197832 0.844239 -0.0293668 
-0.180306 0.155715 -0.0865431 
-0.124914 0.844162 0.156194 
-0.2 0.844168 -0.000400742 
-0.165003 0.844189 -0.113023 
-0.0726504 0.844209 -0.186338 
0.0449599 0.84423 -0.194881 
0.099829 0.844209 0.173304 
0.180059 0.844214 0.0870565 
-0.197731 0.155645 0.0300419 
0.197709 0.844212 0.0301839 
-0.0444991 0.155639 0.194987 
-0.146764 0.155745 -0.135869 
0.180399 0.844248 -0.0863497 
0.146444 0.844206 0.136214 
0.146938 0.84425 -0.135681 
0.124572 0.15571 -0.156467 
0.191206 0.155735 0.0586551 
0.191038 0.155713 -0.0591984 
0.0148218 0.155743 -0.19945 
-0.100158 0.15576 -0.173114 
-0.0732803 0.84417 0.186091 
-0.191224 0.844159 0.0585967 
-0.19099 0.844178 -0.0593547 
-0.124349 0.844198 -0.156644 
-0.0144874 0.844219 -0.199475 
-0.197805 0.15568 -0.0295485 
-0.09997 0.155602 0.173222 
0.197702 0.207697 -0.0302298 
-0.0151778 0.207753 -0.199423 
-0.18042 0.792146 0.0863045 
-0.191239 0.207678 -0.0585446 
0.0997855 0.2077 -0.173329 
0.0155691 0.792232 -0.199393 
-0.197675 0.792152 -0.0304077 
-0.0438889 0.792197 -0.195125 
-0.165134 0.207576 0.112831 
0.180365 0.207731 0.0864201 
-0.100352 0.792164 0.173001 
-0.0149443 0.207701 0.199441 
0.1464 0.207695 -0.136261 
0.0442839 0.207737 -0.195036 
-0.19785 0.792137 0.0292436 
0.180033 0.207698 -0.0871089 
0.197829 0.20772 0.0293859 
-0.146182 0.79218 -0.136495 
-0.179923 0.792147 -0.0873374 
-0.0448503 0.792179 0.194906 
0.0727803 0.792186 0.186288 
-0.165471 0.207735 -0.112335 
0.191279 0.792204 -0.0584168 
-0.191022 0.207613 0.0592508 
-0.0730538 0.207638 0.18618 
-0.146927 0.792134 0.135693 
0.0146199 0.792183 0.199465 
-0.0994488 0.792177 -0.173522 
0.146802 0.207773 0.135828 
0.125172 0.792266 -0.155987 
0.100132 0.207807 0.173129 
-0.124963 0.207773 -0.156154 
-0.0733311 0.207785 -0.186071 
0.165041 0.792099 0.112967 
-0.124624 0.207603 0.156425 
0.165573 0.792229 -0.112185 
-0.2 0.20765 0.000390191 
0.190987 0.792056 0.059362 
0.073643 0.792247 -0.185948 
0.124443 0.792125 0.156569 
0.0445627 0.207799 0.194972 
0.0452432 0.740015 -0.194815 
-0.197849 0.259867 -0.0292528 
-0.146498 0.259832 0.136155 
0.199999 0.792095 0.000501528 
0.164989 0.259858 -0.113043 
-0.180051 0.259863 0.0870724 
-0.180436 0.25994 -0.0862716 
0.190956 0.259878 -0.0594619 
-0.0445325 0.25998 0.194979 
0.165454 0.259944 0.112361 
-0.0141708 0.739923 -0.199497 
-0.0735595 0.739967 0.185981 
0.197848 0.739764 -0.0292574 
-0.191323 0.739916 0.0582717 
0.0440801 0.739958 0.195082 
-0.146946 0.260007 -0.135672 
-0.0999624 0.259935 0.173227 
0.072775 0.259914 -0.18629 
0.180454 0.739878 -0.0862346 
-0.197696 0.259892 0.0302673 
0.146343 0.739729 0.136322 
0.100622 0.740019 -0.172844 
-0.124066 0.73991 -0.156868 
-0.0448453 0.259995 -0.194907 
0.199999 0.259884 -0.000555407 
-0.164795 0.739855 -0.113326 
-0.190878 0.739859 -0.0597127 
-0.0723262 0.739871 -0.186464 
0.191258 0.259916 0.0584846 
0.147055 0.739935 -0.135554 
0.180013 0.739576 0.087151 
0.014937 0.260113 0.199441 
0.0996514 0.739815 0.173406 
0.124398 0.259917 -0.156605 
-0.16561 0.739883 0.11213 
-0.0154286 0.739943 0.199404 
-0.125156 0.73989 0.156 
0.197695 0.739555 0.030274 
0.124849 0.260077 0.156246 
0.0731278 0.260174 0.186151 
-0.124653 0.312607 0.156402 
0.0146338 0.259989 -0.199464 
-0.199999 0.739872 -0.000762593 
-0.10036 0.260058 -0.172997 
-0.199999 0.312519 0.000595593 
0.146265 0.312431 -0.136405 
0.0738061 0.687337 -0.185883 
-0.191303 0.31256 -0.0583364 
0.179929 0.31244 -0.0873251 
0.0157826 0.687224 -0.199376 
-0.165103 0.312596 0.112876 
-0.197891 0.687267 0.028968 
0.0441654 0.312547 -0.195063 
-0.0992208 0.687165 -0.173653 
-0.197631 0.687182 -0.0306896 
-0.0731214 0.312732 0.186154 
0.19126 0.686997 -0.0584771 
-0.10058 0.687332 0.172869 
-0.0153124 0.312628 -0.199413 
0.124375 0.687014 0.156623 
0.125235 0.68725 -0.155937 
0.0143884 0.687345 0.199482 
-0.18053 0.687225 0.0860759 
-0.146004 0.687103 -0.136686 
-0.179809 0.687065 -0.0875721 
-0.0436723 0.687105 -0.195174 
0.165566 0.687086 -0.112196 
0.165043 0.686743 0.112964 
-0.0734581 0.312689 -0.186021 
0.197668 0.312439 -0.0304534 
0.0726166 0.687152 0.186351 
-0.190989 0.312605 0.0593581 
0.0996419 0.312554 -0.173411 
0.2 0.686722 0.000404355 
-0.0451095 0.687303 0.194846 
-0.16558 0.312616 -0.112175 
-0.0150443 0.312853 0.199433 
0.180392 0.312446 0.0863642 
0.146773 0.312659 0.135859 
-0.147099 0.687216 0.135506 
0.124333 0.36553 -0.156657 
0.100563 0.634064 -0.172879 
-0.125079 0.312717 -0.156062 
0.197854 0.312455 0.0292181 
-0.180074 0.365778 0.087026 
-0.197698 0.36575 0.0302541 
-0.100098 0.365922 0.173149 
-0.197849 0.365704 -0.0292558 
0.164911 0.365491 -0.113156 
0.0452415 0.634019 -0.194816 
-0.146569 0.365924 0.136079 
-0.199998 0.634086 -0.000845055 
0.01465 0.365672 -0.199463 
0.19101 0.686592 0.0592889 
0.180341 0.633756 -0.086471 
-0.0141507 0.633928 -0.199499 
0.0996147 0.633923 0.173427 
0.191277 0.365393 0.0584233 
-0.125269 0.634212 0.155909 
0.146931 0.633863 -0.135688 
0.0727472 0.365684 -0.1863 
-0.0155902 0.63426 0.199391 
-0.0446981 0.366052 0.194941 
-0.124037 0.633895 -0.156891 
0.146394 0.633587 0.136268 
-0.191347 0.634087 0.0581929 
-0.180433 0.365699 -0.0862782 
0.190915 0.365473 -0.0595928 
-0.0448073 0.365778 -0.194916 
0.0439627 0.634076 0.195108 
0.100054 0.312849 0.173174 
0.1978 0.63349 -0.0295829 
-0.0737124 0.634193 0.185921 
0.165423 0.365598 0.112407 
-0.190866 0.63392 -0.0597505 
-0.0723203 0.633847 -0.186467 
0.124963 0.580324 -0.156155 
-0.165671 0.634083 0.112041 
0.199999 0.365474 -0.000647242 
0.0444521 0.312947 0.194997 
0.0443364 0.419156 -0.195024 
-0.191066 0.419354 0.0591087 
0.146303 0.418961 -0.136365 
0.0735452 0.58038 -0.185987 
-0.164788 0.633801 -0.113335 
-0.2 0.419289 0.000292859 
-0.146927 0.365749 -0.135692 
0.0997567 0.41912 -0.173345 
-0.19767 0.580445 -0.0304393 
-0.0994476 0.580282 -0.173523 
-0.147065 0.580693 0.135543 
-0.100309 0.365835 -0.173026 
-0.0150657 0.419236 -0.199432 
0.165328 0.580136 -0.112546 
-0.0451395 0.58077 0.194839 
0.0726305 0.580504 0.186346 
0.0147531 0.366118 0.199455 
-0.0733529 0.419603 0.186063 
-0.165266 0.419479 0.112638 
[...]
POINT_DATA 899
SCALARS point_scalar_data float 1
LOOKUP_TABLE data_color
0.625
0.625
0.625
0.625
0.625
0.625
0.625
0.625
0.625
0.625
0.625
0.625
0.625
0.625
0.625
0.625
0.625
0.625
0.625
0.625
0.625
0.625
0.625
0.625
0.625
0.625
0.625
0.625
0.625
0.625
0.625
0.625
0.625
0.625
0.625
0.625
0.625
0.625
0.625
0.625
0.625
0.625
0.75
0.75
0.75
0.75
0.75
0.75
0.75
0.75
0.75
0.75
0.75
0.75
0.75
0.75
0.75
0.75
0.75
0.75
0.75
0.75
0.75
0.75
0.75
0.75
0.75
0.75
0.75
0.75
0.75
0.75
0.75
0.75
0.75
0.75
0.75
0.75
0.75
0.75
0.75
0.75
0.75
0.75
0.75
0.75
0.75
0.75
0.75
0.75
0.75
0.75
0.75
0.75
0.75
0.75
0.75
0.75
0.75
0.75
0.75
0.75
0.75
0.75
0.75
0.75
0.75
0.75
0.75
0.75
0.75
0.75
0.75
0.75
0.75
0.75
0.75
0.75
0.75
0.75
0.75
0.75
0.75
0.75
0.75
0.75
0.75
0.75
0.75
0.75
0.75
0.75
0.75
0.75
0.75
0.75
0.75
0.75
0.75
0.75
0.75
0.75
0.75
0.75
0.75
0.75
0.75
0.75
0.75
0.75
0.75
0.75
0.75
0.75
0.75
0.75
0.75
0.75
0.75
0.75
0.75
0.75
0.75
0.75
0.75
0.75
0.75
0.75
0.75
0.75
0.75
0.75
0.75
0.75
0.75
0.75
0.75
0.75
0.75
0.75
0.75
0.75
0.75
0.75
0.75
0.75
0.75
0.75
0.75
0.75
0.75
0.75
0.75
0.75
0.75
0.75
0.75
0.75
0.75
0.75
0.75
0.75
0.75
0.75
0.75
0.75
0.75
0.75
0.75
0.75
0.75
0.75
0.75
0.75
0.75
0.75
0.75
0.75
0.75
0.75
0.75
0.75
0.75
0.75
0.75
0.75
0.75
0.75
0.75
0.75
0.75
0.75
0.75
0.75
0.75
0.75
0.75
0.75
0.75
0.75
0.75
0.75
0.75
0.75
0.75
0.75
0.75
0.75
0.75
0.75
0.75
0.75
0.75
0.75
0.75
0.75
0.75
0.75
0.75
0.75
0.75
0.75
0.75
0.75
0.75
0.75
0.75
0.75
0.75
0.75
0.75
0.75
0.75
0.75
0.75
0.75
0.75
0.75
0.75
0.75
0.75
0.75
0.75
0.75
0.75
0.75
0.75
0.75
0.75
0.75
0.75
0.75
0.75
0.75
0.75
0.75
0.75
0.75
0.75
0.75
0.75
0.75
0.75
0.75
0.75
0.75
0.75
0.75
0.75
0.75
0.75
0.75
0.75
0.75
0.75
0.75
0.75
0.75
0.75
0.75
0.75
0.75
0.75
0.75
0.75
0.75
0.75
0.75
0.75
0.75
0.75
0.75
0.75
0.75
0.75
0.75
0.75
0.75
0.75
0.75
0.75
0.75
0.75
0.75
0.75
0.75
0.75
0.75
0.75
0.75
0.75
0.75
0.75
0.75
0.75
0.75
0.75
0.75
0.75
0.75
0.75
0.75
0.75
0.75
0.75
0.75
0.75
0.75
0.75
0.75
0.75
0.75
0.75
0.75
0.75
0.75
0.75
0.75
0.75
0.75
0.75
0.75
0.75
0.75
0.75
0.75
0.75
0.75
0.75
0.75
0.75
0.75
0.75
0.75
0.75
0.75
0.75
0.75
0.75
0.75
0.75
0.75
0.75
0.75
0.75
0.75
0.75
0.75
0.75
0.75
0.75
0.75
0.75
0.75
0.75
0.75
0.75
0.75
0.75
0.75
0.625
0.625
0.625
0.625
0.625
0.625
0.625
0.625
0.625
0.625
0.625
0.625
0.625
0.625
0.625
0.625
0.625
0.625
0.625
0.625
0.625
0.625
0.625
0.625
0.625
0.625
0.625
0.625
0.625
0.625
0.625
0.625
0.625
0.625
0.625
0.625
0.625
0.625
0.625
0.625
0.625
0.625
0.625
0.625
0.5
0.5
0.5
0.5
0.5
0.5
0.5
0.5
0.5
0.5
0.5
0.5
0.5
0.5
0.5
0.5
0.5
0.5
0.5
0.5
0.5
0.5
0.5
0.5
0.5
0.5
0.5
0.5
0.5
0.5
0.5
0.5
0.5
0.5
0.5
0.5
0.5
0.5
0.5
0.5
0.5
0.5
0.5
0.5
0.5
0.5
0.5
0.5
0.5
0.5
0.5
0.5
0.5
0.5
0.5
0.5
0.5
0.5
0.5
0.5
0.5
0.5
0.5
0.5
0.5
0.5
0.5
0.5
0.5
0.5
0.5
0.5
0.5
0.5
0.5
0.5
0.5
0.5
0.5
0.5
0.5
0.5
0.5
0.5
0.5
0.5
0.5
0.5
0.5
0.5
0.5
0.5
0.5
0.5
0.5
0.5
0.5
0.5
0.5
0.5
0.5
0.5
0.5
0.5
0.5
0.5
0.5
0.5
0.5
0.5
0.5
0.5
0.5
0.5
0.5
0.5
0.5
0.5
0.5
0.5
0.5
0.5
0.5
0.5
0.5
0.5
0.5
0.5
0.5
0.5
0.5
0.5
0.5
0.5
0.5
0.5
0.5
0.5
0.5
0.5
0.5
0.5
0.5
0.5
0.5
0.5
0.5
0.5
0.5
0.5
0.5
0.5
0.5
0.5
0.5
0.5
0.5
0.5
0.5
0.5
0.5
0.5
0.5
0.5
0.5
0.5
0.5
0.5
0.5
0.5
0.5
0.5
0.5
0.5
0.5
0.5
0.5
0.5
0.5
0.5
0.5
0.5
0.5
0.5
0.5
0.5
0.5
0.5
0.5
0.5
0.5
0.5
0.5
0.5
0.5
0.5
0.5
0.5
0.5
0.5
0.5
0.5
0.5
0.5
0.5
0.5
0.5
0.5
0.5
0.5
0.5
0.5
0.5
0.5
0.5
0.5
0.5
0.5
0.5
0.5
0.5
0.5
0.5
0.5
0.5
0.5
0.5
0.5
0.5
0.5
0.5
0.5
0.5
0.5
0.5
0.5
0.5
0.5
0.5
0.5
0.5
0.5
0.5
0.5
0.5
0.5
0.5
0.5
0.5
0.5
0.5
0.5
0.5
0.5
0.5
0.5
0.5
0.5
0.5
0.5
0.5
0.5
0.5
0.5
0.5
0.5
0.5
0.5
0.5
0.5
0.5
0.5
0.5
0.5
0.5
0.5
0.5
0.5
0.5
0.5
0.5
0.5
0.5
0.5
0.5
0.5
0.5
0.5
0.5
0.5
0.5
0.5
0.5
0.5
0.5
0.5
0.5
0.5
0.5
0.5
0.5
0.5
0.5
0.5
0.5
0.5
0.5
0.5
0.5
0.5
0.5
0.5
0.5
0.5
0.5
0.5
0.5
0.5
0.5
0.5
0.5
0.5
0.5
0.5
0.5
0.5
0.5
0.5
0.5
0.5
0.5
0.5
0.5
0.5
0.5
0.5
0.5
0.5
0.5
0.5
0.5
0.5
0.5
0.5
0.5
0.5
0.5
0.5
0.5
0.5
0.5
0.5
0.5
0.5
0.5
0.5
0.5
0.5
0.5
0.5
0.5
0.5
0.5
0.5
0.5
0.5
0.5
0.5
0.5
0.5
0.5
0.5
0.5
0.5
0.5
0.5
0.5
0.5
0.5
0.5
0.5
0.5
0.5
0.5
0.5
0.5
0.5
0.5
0.5
0.5
0.5
0.5
0.5
0.5
0.5
0.5
0.5
0.5
0.5
0.5
0.5
0.5
0.5
0.5
0.5
0.5
0.5
0.5
0.5
0.5
0.5
0.5
0.5
0.5
0.5
0.5
0.5
0.5
0.5
0.5
0.5
0.5
0.5
0.5
0.5
0.5
0.5
0.5
0.5
0.5
0.5
0.5
0.5
0.5
0.5
LOOKUP_TABLE data_color 101
0 1 0.0 1.0
0.01 0.99 0.0 1.0
0.02 0.98 0.0 1.0
0.03 0.97 0.0 1.0
0.04 0.96 0.0 1.0
0.05 0.95 0.0 1.0
0.06 0.94 0.0 1.0
0.07 0.93 0.0 1.0
0.08 0.92 0.0 1.0
0.09 0.91 0.0 1.0
0.1 0.9 0.0 1.0
0.11 0.89 0.0 1.0
0.12 0.88 0.0 1.0
0.13 0.87 0.0 1.0
0.14 0.86 0.0 1.0
0.15 0.85 0.0 1.0
0.16 0.84 0.0 1.0
0.17 0.83 0.0 1.0
0.18 0.82 0.0 1.0
0.19 0.81 0.0 1.0
0.2 0.8 0.0 1.0
0.21 0.79 0.0 1.0
0.22 0.78 0.0 1.0
0.23 0.77 0.0 1.0
0.24 0.76 0.0 1.0
0.25 0.75 0.0 1.0
0.26 0.74 0.0 1.0
0.27 0.73 0.0 1.0
0.28 0.72 0.0 1.0
0.29 0.71 0.0 1.0
0.3 0.7 0.0 1.0
0.31 0.69 0.0 1.0
0.32 0.68 0.0 1.0
0.33 0.67 0.0 1.0
0.34 0.66 0.0 1.0
0.35 0.65 0.0 1.0
0.36 0.64 0.0 1.0
0.37 0.63 0.0 1.0
0.38 0.62 0.0 1.0
0.39 0.61 0.0 1.0
0.4 0.6 0.0 1.0
0.41 0.59 0.0 1.0
0.42 0.58 0.0 1.0
0.43 0.57 0.0 1.0
0.44 0.56 0.0 1.0
0.45 0.55 0.0 1.0
0.46 0.54 0.0 1.0
0.47 0.53 0.0 1.0
0.48 0.52 0.0 1.0
0.49 0.51 0.0 1.0
0.5 0.5 0.0 1.0
0.51 0.49 0.0 1.0
0.52 0.48 0.0 1.0
0.53 0.47 0.0 1.0
0.54 0.46 0.0 1.0
0.55 0.45 0.0 1.0
0.56 0.44 0.0 1.0
0.57 0.43 0.0 1.0
0.58 0.42 0.0 1.0
0.59 0.41 0.0 1.0
0.6 0.4 0.0 1.0
0.61 0.39 0.0 1.0
0.62 0.38 0.0 1.0
0.63 0.37 0.0 1.0
0.64 0.36 0.0 1.0
0.65 0.35 0.0 1.0
0.66 0.34 0.0 1.0
0.67 0.33 0.0 1.0
0.68 0.32 0.0 1.0
0.69 0.31 0.0 1.0
0.7 0.3 0.0 1.0
0.71 0.29 0.0 1.0
0.72 0.28 0.0 1.0
0.73 0.27 0.0 1.0
0.74 0.26 0.0 1.0
0.75 0.25 0.0 1.0
0.76 0.24 0.0 1.0
0.77 0.23 0.0 1.0
0.78 0.22 0.0 1.0
0.79 0.21 0.0 1.0
0.8 0.2 0.0 1.0
0.81 0.19 0.0 1.0
0.82 0.18 0.0 1.0
0.83 0.17 0.0 1.0
0.84 0.16 0.0 1.0
0.85 0.15 0.0 1.0
0.86 0.14 0.0 1.0
0.87 0.13 0.0 1.0
0.88 0.12 0.0 1.0
0.89 0.11 0.0 1.0
0.9 0.1 0.0 1.0
0.91 0.09 0.0 1.0
0.92 0.08 0.0 1.0
0.93 0.07 0.0 1.0
0.94 0.06 0.0 1.0
0.95 0.05 0.0 1.0
0.96 0.04 0.0 1.0
0.97 0.03 0.0 1.0
0.98 0.02 0.0 1.0
0.99 0.01 0.0 1.0
1 0 0.0 1.0
